# vtk DataFile Version 2.0
Probe data. Evaluations = 1
ASCII
DATASET STRUCTURED_GRID
DIMENSIONS 50 50 1
POINTS 2500 double
0.0 0.5 0.0
0.0204081632653 0.5 0.0
0.0408163265306 0.5 0.0
0.0612244897959 0.5 0.0
0.0816326530612 0.5 0.0
0.102040816327 0.5 0.0
0.122448979592 0.5 0.0
0.142857142857 0.5 0.0
0.163265306122 0.5 0.0
0.183673469388 0.5 0.0
0.204081632653 0.5 0.0
0.224489795918 0.5 0.0
0.244897959184 0.5 0.0
0.265306122449 0.5 0.0
0.285714285714 0.5 0.0
0.30612244898 0.5 0.0
0.326530612245 0.5 0.0
0.34693877551 0.5 0.0
0.367346938776 0.5 0.0
0.387755102041 0.5 0.0
0.408163265306 0.5 0.0
0.428571428571 0.5 0.0
0.448979591837 0.5 0.0
0.469387755102 0.5 0.0
0.489795918367 0.5 0.0
0.510204081633 0.5 0.0
0.530612244898 0.5 0.0
0.551020408163 0.5 0.0
0.571428571429 0.5 0.0
0.591836734694 0.5 0.0
0.612244897959 0.5 0.0
0.632653061224 0.5 0.0
0.65306122449 0.5 0.0
0.673469387755 0.5 0.0
0.69387755102 0.5 0.0
0.714285714286 0.5 0.0
0.734693877551 0.5 0.0
0.755102040816 0.5 0.0
0.775510204082 0.5 0.0
0.795918367347 0.5 0.0
0.816326530612 0.5 0.0
0.836734693878 0.5 0.0
0.857142857143 0.5 0.0
0.877551020408 0.5 0.0
0.897959183673 0.5 0.0
0.918367346939 0.5 0.0
0.938775510204 0.5 0.0
0.959183673469 0.5 0.0
0.979591836735 0.5 0.0
1.0 0.5 0.0
0.0 0.5 0.0204081632653
0.0204081632653 0.5 0.0204081632653
0.0408163265306 0.5 0.0204081632653
0.0612244897959 0.5 0.0204081632653
0.0816326530612 0.5 0.0204081632653
0.102040816327 0.5 0.0204081632653
0.122448979592 0.5 0.0204081632653
0.142857142857 0.5 0.0204081632653
0.163265306122 0.5 0.0204081632653
0.183673469388 0.5 0.0204081632653
0.204081632653 0.5 0.0204081632653
0.224489795918 0.5 0.0204081632653
0.244897959184 0.5 0.0204081632653
0.265306122449 0.5 0.0204081632653
0.285714285714 0.5 0.0204081632653
0.30612244898 0.5 0.0204081632653
0.326530612245 0.5 0.0204081632653
0.34693877551 0.5 0.0204081632653
0.367346938776 0.5 0.0204081632653
0.387755102041 0.5 0.0204081632653
0.408163265306 0.5 0.0204081632653
0.428571428571 0.5 0.0204081632653
0.448979591837 0.5 0.0204081632653
0.469387755102 0.5 0.0204081632653
0.489795918367 0.5 0.0204081632653
0.510204081633 0.5 0.0204081632653
0.530612244898 0.5 0.0204081632653
0.551020408163 0.5 0.0204081632653
0.571428571429 0.5 0.0204081632653
0.591836734694 0.5 0.0204081632653
0.612244897959 0.5 0.0204081632653
0.632653061224 0.5 0.0204081632653
0.65306122449 0.5 0.0204081632653
0.673469387755 0.5 0.0204081632653
0.69387755102 0.5 0.0204081632653
0.714285714286 0.5 0.0204081632653
0.734693877551 0.5 0.0204081632653
0.755102040816 0.5 0.0204081632653
0.775510204082 0.5 0.0204081632653
0.795918367347 0.5 0.0204081632653
0.816326530612 0.5 0.0204081632653
0.836734693878 0.5 0.0204081632653
0.857142857143 0.5 0.0204081632653
0.877551020408 0.5 0.0204081632653
0.897959183673 0.5 0.0204081632653
0.918367346939 0.5 0.0204081632653
0.938775510204 0.5 0.0204081632653
0.959183673469 0.5 0.0204081632653
0.979591836735 0.5 0.0204081632653
1.0 0.5 0.0204081632653
0.0 0.5 0.0408163265306
0.0204081632653 0.5 0.0408163265306
0.0408163265306 0.5 0.0408163265306
0.0612244897959 0.5 0.0408163265306
0.0816326530612 0.5 0.0408163265306
0.102040816327 0.5 0.0408163265306
0.122448979592 0.5 0.0408163265306
0.142857142857 0.5 0.0408163265306
0.163265306122 0.5 0.0408163265306
0.183673469388 0.5 0.0408163265306
0.204081632653 0.5 0.0408163265306
0.224489795918 0.5 0.0408163265306
0.244897959184 0.5 0.0408163265306
0.265306122449 0.5 0.0408163265306
0.285714285714 0.5 0.0408163265306
0.30612244898 0.5 0.0408163265306
0.326530612245 0.5 0.0408163265306
0.34693877551 0.5 0.0408163265306
0.367346938776 0.5 0.0408163265306
0.387755102041 0.5 0.0408163265306
0.408163265306 0.5 0.0408163265306
0.428571428571 0.5 0.0408163265306
0.448979591837 0.5 0.0408163265306
0.469387755102 0.5 0.0408163265306
0.489795918367 0.5 0.0408163265306
0.510204081633 0.5 0.0408163265306
0.530612244898 0.5 0.0408163265306
0.551020408163 0.5 0.0408163265306
0.571428571429 0.5 0.0408163265306
0.591836734694 0.5 0.0408163265306
0.612244897959 0.5 0.0408163265306
0.632653061224 0.5 0.0408163265306
0.65306122449 0.5 0.0408163265306
0.673469387755 0.5 0.0408163265306
0.69387755102 0.5 0.0408163265306
0.714285714286 0.5 0.0408163265306
0.734693877551 0.5 0.0408163265306
0.755102040816 0.5 0.0408163265306
0.775510204082 0.5 0.0408163265306
0.795918367347 0.5 0.0408163265306
0.816326530612 0.5 0.0408163265306
0.836734693878 0.5 0.0408163265306
0.857142857143 0.5 0.0408163265306
0.877551020408 0.5 0.0408163265306
0.897959183673 0.5 0.0408163265306
0.918367346939 0.5 0.0408163265306
0.938775510204 0.5 0.0408163265306
0.959183673469 0.5 0.0408163265306
0.979591836735 0.5 0.0408163265306
1.0 0.5 0.0408163265306
0.0 0.5 0.0612244897959
0.0204081632653 0.5 0.0612244897959
0.0408163265306 0.5 0.0612244897959
0.0612244897959 0.5 0.0612244897959
0.0816326530612 0.5 0.0612244897959
0.102040816327 0.5 0.0612244897959
0.122448979592 0.5 0.0612244897959
0.142857142857 0.5 0.0612244897959
0.163265306122 0.5 0.0612244897959
0.183673469388 0.5 0.0612244897959
0.204081632653 0.5 0.0612244897959
0.224489795918 0.5 0.0612244897959
0.244897959184 0.5 0.0612244897959
0.265306122449 0.5 0.0612244897959
0.285714285714 0.5 0.0612244897959
0.30612244898 0.5 0.0612244897959
0.326530612245 0.5 0.0612244897959
0.34693877551 0.5 0.0612244897959
0.367346938776 0.5 0.0612244897959
0.387755102041 0.5 0.0612244897959
0.408163265306 0.5 0.0612244897959
0.428571428571 0.5 0.0612244897959
0.448979591837 0.5 0.0612244897959
0.469387755102 0.5 0.0612244897959
0.489795918367 0.5 0.0612244897959
0.510204081633 0.5 0.0612244897959
0.530612244898 0.5 0.0612244897959
0.551020408163 0.5 0.0612244897959
0.571428571429 0.5 0.0612244897959
0.591836734694 0.5 0.0612244897959
0.612244897959 0.5 0.0612244897959
0.632653061224 0.5 0.0612244897959
0.65306122449 0.5 0.0612244897959
0.673469387755 0.5 0.0612244897959
0.69387755102 0.5 0.0612244897959
0.714285714286 0.5 0.0612244897959
0.734693877551 0.5 0.0612244897959
0.755102040816 0.5 0.0612244897959
0.775510204082 0.5 0.0612244897959
0.795918367347 0.5 0.0612244897959
0.816326530612 0.5 0.0612244897959
0.836734693878 0.5 0.0612244897959
0.857142857143 0.5 0.0612244897959
0.877551020408 0.5 0.0612244897959
0.897959183673 0.5 0.0612244897959
0.918367346939 0.5 0.0612244897959
0.938775510204 0.5 0.0612244897959
0.959183673469 0.5 0.0612244897959
0.979591836735 0.5 0.0612244897959
1.0 0.5 0.0612244897959
0.0 0.5 0.0816326530612
0.0204081632653 0.5 0.0816326530612
0.0408163265306 0.5 0.0816326530612
0.0612244897959 0.5 0.0816326530612
0.0816326530612 0.5 0.0816326530612
0.102040816327 0.5 0.0816326530612
0.122448979592 0.5 0.0816326530612
0.142857142857 0.5 0.0816326530612
0.163265306122 0.5 0.0816326530612
0.183673469388 0.5 0.0816326530612
0.204081632653 0.5 0.0816326530612
0.224489795918 0.5 0.0816326530612
0.244897959184 0.5 0.0816326530612
0.265306122449 0.5 0.0816326530612
0.285714285714 0.5 0.0816326530612
0.30612244898 0.5 0.0816326530612
0.326530612245 0.5 0.0816326530612
0.34693877551 0.5 0.0816326530612
0.367346938776 0.5 0.0816326530612
0.387755102041 0.5 0.0816326530612
0.408163265306 0.5 0.0816326530612
0.428571428571 0.5 0.0816326530612
0.448979591837 0.5 0.0816326530612
0.469387755102 0.5 0.0816326530612
0.489795918367 0.5 0.0816326530612
0.510204081633 0.5 0.0816326530612
0.530612244898 0.5 0.0816326530612
0.551020408163 0.5 0.0816326530612
0.571428571429 0.5 0.0816326530612
0.591836734694 0.5 0.0816326530612
0.612244897959 0.5 0.0816326530612
0.632653061224 0.5 0.0816326530612
0.65306122449 0.5 0.0816326530612
0.673469387755 0.5 0.0816326530612
0.69387755102 0.5 0.0816326530612
0.714285714286 0.5 0.0816326530612
0.734693877551 0.5 0.0816326530612
0.755102040816 0.5 0.0816326530612
0.775510204082 0.5 0.0816326530612
0.795918367347 0.5 0.0816326530612
0.816326530612 0.5 0.0816326530612
0.836734693878 0.5 0.0816326530612
0.857142857143 0.5 0.0816326530612
0.877551020408 0.5 0.0816326530612
0.897959183673 0.5 0.0816326530612
0.918367346939 0.5 0.0816326530612
0.938775510204 0.5 0.0816326530612
0.959183673469 0.5 0.0816326530612
0.979591836735 0.5 0.0816326530612
1.0 0.5 0.0816326530612
0.0 0.5 0.102040816327
0.0204081632653 0.5 0.102040816327
0.0408163265306 0.5 0.102040816327
0.0612244897959 0.5 0.102040816327
0.0816326530612 0.5 0.102040816327
0.102040816327 0.5 0.102040816327
0.122448979592 0.5 0.102040816327
0.142857142857 0.5 0.102040816327
0.163265306122 0.5 0.102040816327
0.183673469388 0.5 0.102040816327
0.204081632653 0.5 0.102040816327
0.224489795918 0.5 0.102040816327
0.244897959184 0.5 0.102040816327
0.265306122449 0.5 0.102040816327
0.285714285714 0.5 0.102040816327
0.30612244898 0.5 0.102040816327
0.326530612245 0.5 0.102040816327
0.34693877551 0.5 0.102040816327
0.367346938776 0.5 0.102040816327
0.387755102041 0.5 0.102040816327
0.408163265306 0.5 0.102040816327
0.428571428571 0.5 0.102040816327
0.448979591837 0.5 0.102040816327
0.469387755102 0.5 0.102040816327
0.489795918367 0.5 0.102040816327
0.510204081633 0.5 0.102040816327
0.530612244898 0.5 0.102040816327
0.551020408163 0.5 0.102040816327
0.571428571429 0.5 0.102040816327
0.591836734694 0.5 0.102040816327
0.612244897959 0.5 0.102040816327
0.632653061224 0.5 0.102040816327
0.65306122449 0.5 0.102040816327
0.673469387755 0.5 0.102040816327
0.69387755102 0.5 0.102040816327
0.714285714286 0.5 0.102040816327
0.734693877551 0.5 0.102040816327
0.755102040816 0.5 0.102040816327
0.775510204082 0.5 0.102040816327
0.795918367347 0.5 0.102040816327
0.816326530612 0.5 0.102040816327
0.836734693878 0.5 0.102040816327
0.857142857143 0.5 0.102040816327
0.877551020408 0.5 0.102040816327
0.897959183673 0.5 0.102040816327
0.918367346939 0.5 0.102040816327
0.938775510204 0.5 0.102040816327
0.959183673469 0.5 0.102040816327
0.979591836735 0.5 0.102040816327
1.0 0.5 0.102040816327
0.0 0.5 0.122448979592
0.0204081632653 0.5 0.122448979592
0.0408163265306 0.5 0.122448979592
0.0612244897959 0.5 0.122448979592
[...]
POINT_DATA 2500
SCALARS Scalar double 1
LOOKUP_TABLE default
0.00498341321103 0.00506792260044 0.00510912511936 0.00510626216371 0.0050594716615 0.00496977517669 0.00483339483324 0.00465711456804 0.00445068225806 0.004218934397 0.00396691274416 0.00369954377524 0.00342238544918 0.00314372376409 0.0028675625912 0.0025974697968 0.00233656638778 0.00209033937338 0.00186019282282 0.00164582947043 0.00144780642733 0.00126636769265 0.00110248857314 0.000958061971275 0.000828580527991 0.000713194475628 0.000610995710879 0.000521030253599 0.000444479863075 0.000378139393558 0.000320396739559 0.000270388703986 0.000227296133709 0.000190840274189 0.000160469969693 0.000134445132033 0.000112243104993 9.33858144904e-05 7.74386179025e-05 6.4516379243e-05 5.36230354375e-05 4.44235956542e-05 3.66866487478e-05 3.02056273491e-05 2.49061270292e-05 2.05843805502e-05 1.69593786986e-05 1.39310451846e-05 1.1410887724e-05 9.3212906991e-06 0.00626340371733 0.00638037450759 0.00643012998695 0.00642368030595 0.00636137361337 0.006244563739 0.00606136589972 0.00582497652317 0.00555679978466 0.00525779107005 0.00493428018071 0.00459005203549 0.00421778720544 0.00386482012203 0.00351664883204 0.00317747355838 0.00285098200046 0.00253267721775 0.00224317271319 0.00197985741358 0.00173735396339 0.00151579736804 0.00131407873809 0.00113271928466 0.000977651370668 0.000839747571826 0.000717857730631 0.000610788561406 0.000516887264123 0.000438307034567 0.000370781442657 0.000312376099074 0.000262120805233 0.000219134966364 0.000183113527558 0.000153243555549 0.000127776575884 0.000106164470943 8.79068789961e-05 7.2690046941e-05 6.03249054683e-05 4.99326792665e-05 4.119550631e-05 3.38808773521e-05 2.78234550564e-05 2.28977621227e-05 1.88553735506e-05 1.54780983187e-05 1.26681002417e-05 1.03391519981e-05 0.00785465443962 0.00800677517755 0.00807580137701 0.00806334217137 0.00798033779789 0.00782856643856 0.00759124250188 0.0072744706085 0.00691745591256 0.00653293095484 0.00611914377732 0.00568045956326 0.00520363899625 0.00473243284048 0.00429567758946 0.00387183016032 0.00346517559531 0.00306992857661 0.0026988552113 0.00237061184629 0.00207533357167 0.00180624703893 0.0015619458923 0.00134079679192 0.00114781272305 0.000983982972528 0.000839425968032 0.000712682761086 0.00060192481338 0.000506407852854 0.000427017522759 0.000359181073374 0.000300880712433 0.00025112226164 0.000209017394535 0.00017385699658 0.000144797285295 0.000120151674124 9.93499431103e-05 8.2067069053e-05 6.7617980109e-05 5.58830030787e-05 4.60622251249e-05 3.78440982605e-05 3.10500741881e-05 2.54598117035e-05 2.08787279702e-05 1.71284685147e-05 1.40084221554e-05 1.14233827264e-05 0.00982614337149 0.0100234467641 0.0101146052396 0.0100971671069 0.00998654548954 0.00978992433683 0.00948345467506 0.00907514122345 0.00859888265865 0.00809076405906 0.00756379346362 0.00700710413756 0.00640275698267 0.00580414171911 0.00522508667804 0.00469834117705 0.00419445245511 0.0037061167999 0.00324933249494 0.00283219458658 0.00246734170877 0.00214238362304 0.00184811149617 0.00158274166781 0.00134936312805 0.00114731205956 0.000976856270078 0.000827637780909 0.000697707112308 0.000585904579904 0.00049023199359 0.000411039229232 0.000343760127947 0.000286457742714 0.000238108419031 0.000197291987159 0.000163341056418 0.000135374092231 0.000111786553221 9.22516549316e-05 7.59318472685e-05 6.23209997086e-05 5.12871343749e-05 4.20947092501e-05 3.45080674693e-05 2.82762514521e-05 2.3106291241e-05 1.88803418666e-05 1.54301248773e-05 1.25723564736e-05 0.0122594617801 0.012514481355 0.0126347691846 0.0126171490477 0.0124627912363 0.0122090318609 0.011814867024 0.0112906383781 0.0106820164278 0.0100075928167 0.00931644418586 0.0086135286924 0.00785105605672 0.00709909750141 0.00636938201789 0.005676279742 0.00505542277898 0.00445532014125 0.00389592661839 0.00338671689143 0.00292710064522 0.00252898061799 0.00217648888617 0.00185982044921 0.00158195987344 0.0013395578803 0.00113125374996 0.000956527500702 0.000804936636576 0.000674758534487 0.000563527181893 0.000468920150522 0.000390914330182 0.000325258606176 0.000270019651358 0.000223423894926 0.000184277796044 0.000151847891059 0.0001252257922 0.000103249790775 8.49018830249e-05 6.96072707619e-05 5.69055453844e-05 4.66291540025e-05 3.81937986253e-05 3.12766044843e-05 2.55385660553e-05 2.07963151977e-05 1.69306337059e-05 1.37836821292e-05 0.0152499928644 0.015578108473 0.0157366403224 0.0157215672422 0.015533901278 0.0151795505513 0.0146752513592 0.0140055727656 0.0132318008102 0.0123770087547 0.0114644258646 0.0105490231457 0.00959210046232 0.00865219257082 0.00774312793174 0.00687625005057 0.00606596137114 0.00533272392255 0.00465136083168 0.00403285344602 0.00347609634653 0.00297905898462 0.00255102978037 0.0021752639327 0.00184617497279 0.00155966114785 0.00131169318582 0.00110016256296 0.000924255010041 0.000773469150955 0.000644793109975 0.000535513326269 0.000443147299887 0.000367611972356 0.000304814857508 0.000251876621321 0.000207442495318 0.000170303487583 0.000139666423253 0.000115058010751 9.45229707598e-05 7.74124450691e-05 6.32123642518e-05 5.14725080805e-05 4.2100796313e-05 3.44549511185e-05 2.81127285305e-05 2.28727858204e-05 1.85596850033e-05 1.50541807395e-05 0.019056001788 0.0194980737383 0.0196985290295 0.0196780371296 0.0194380392736 0.0189855594749 0.0182811363442 0.0174107186852 0.0164133882605 0.0153180745468 0.0141537355256 0.0129406980871 0.0117008857567 0.010522255845 0.00938761023944 0.00831004816952 0.0072999354158 0.00635367790907 0.00552612885386 0.00477744420153 0.00410567293263 0.00350788703252 0.00297905898462 0.00252775566453 0.00214044709966 0.00180396229447 0.00151341181577 0.00126404168248 0.00105364235942 0.000880314528958 0.000732573722854 0.000607281726858 0.000501556707747 0.000413101057814 0.000341606177185 0.000281933428585 0.000231883448927 0.000190092492063 0.000155347059625 0.000127306297122 0.000104502448354 8.55054287505e-05 6.97476105815e-05 5.67294336989e-05 4.6121201175e-05 3.77021293405e-05 3.07434933647e-05 2.49949324367e-05 2.02648750863e-05 1.63872081449e-05 0.0239003861326 0.0244999506924 0.0247641137444 0.0247212390886 0.0243972462425 0.0238016367803 0.0228778340948 0.0216641168335 0.0203625772599 0.0189460143565 0.0174504352574 0.0159005761281 0.0142724018951 0.0127499381716 0.0113345773672 0.00999732948397 0.00874970043965 0.00758075401132 0.00652529398831 0.00562411085443 0.00481831937676 0.00410374622439 0.00347416963829 0.00292406301436 0.00246376847325 0.00207161435466 0.00173373932656 0.00144444589591 0.00119941735724 0.00099450469233 0.000826252487107 0.000683738428117 0.000563658851775 0.00046345834847 0.000380657628922 0.000313344818153 0.000257406730913 0.000210736326334 0.000171974409708 0.00014049402115 0.000114757384867 9.38218966047e-05 7.64611406827e-05 6.21266118102e-05 5.04676115044e-05 4.10191359549e-05 3.34115415109e-05 2.71476458213e-05 2.19945189879e-05 1.77717139272e-05 0.0299023367224 0.0306916978787 0.031053957986 0.0309839691999 0.0305458427022 0.0297633481599 0.0285545389806 0.0269721741624 0.0251642340084 0.0233401551058 0.0214278975873 0.019456630412 0.0173955921459 0.0154175081426 0.0136109149131 0.0119622897661 0.0104308435854 0.00900409552206 0.00771582401226 0.00658068613068 0.00562106710399 0.00477266038314 0.00402806962763 0.00338110853697 0.00282637778618 0.00236497922661 0.00197464013039 0.00164114587168 0.00136003539215 0.00112366110523 0.00092675329545 0.000765621625666 0.000630032660379 0.000517183815769 0.000424241768529 0.000346980006374 0.000284302882753 0.000232457613743 0.000189439270508 0.000154628501714 0.000125932529749 0.000102474695754 8.34381394583e-05 6.77280163991e-05 5.49743177396e-05 4.465717693e-05 3.61799600382e-05 2.93627504306e-05 2.37723547063e-05 1.91930583603e-05 0.037309914692 0.0383468521896 0.0388325229796 0.038747987159 0.0381384719229 0.0371134022841 0.0355365641616 0.0334801863404 0.0311464505436 0.0286273778378 0.0261960210632 0.0237019416641 0.0211067993322 0.0186323255954 0.0163114908864 0.0142321738814 0.0123647123287 0.0106348408713 0.00908127681111 0.00771099146616 0.00651772600698 0.00551729076853 0.00464252274635 0.00388679708919 0.00324052858959 0.00269073445911 0.00223591290641 0.00185385224052 0.00153338953642 0.00126455566925 0.00103933777812 0.000852661917533 0.000700426975067 0.000574052716191 0.000470320735289 0.000384154853716 0.000312856507298 0.000255150502307 0.000207649226408 0.000169353311704 0.000137803448846 0.000111817660608 9.064166211e-05 7.35018480725e-05 5.96143957538e-05 4.84003936175e-05 3.91867047688e-05 3.16444400352e-05 2.55882089231e-05 2.0642642862e-05 0.046413174847 0.0477707558192 0.0484219632812 0.0483417063325 0.047538189471 0.0461339020877 0.0440860176571 0.0414250341444 0.0384258703865 0.0352053528874 0.031873070214 0.0287365721941 0.0254883269402 0.0224102349631 0.0195389023399 0.0168987604288 0.0145712561597 0.0124881874126 0.0106271236785 0.00899206063967 0.00756676235256 0.00633929208217 0.00531833809565 0.00444151294737 0.00369344117576 0.00305864976116 0.00252287167625 0.00208196637412 0.00171891092672 0.00141502239418 0.00116080505608 0.000949085355816 0.000774509088396 0.000633766583674 0.000518636323872 0.000423066542745 0.000344062731217 0.000279010847669 0.000226493945027 0.00018457414506 0.000150058834792 0.000121642937758 9.83389459587e-05 7.94120550827e-05 6.4357092542e-05 5.22228278245e-05 4.22535994306e-05 3.40953299753e-05 2.7443202385e-05 2.21109900186e-05 0.0576331536839 0.0594209935493 0.0602871150599 0.0602208601971 0.0592287639723 0.0573538809246 0.0545611533317 0.0511214541372 0.0472739078032 0.0431640657086 0.0389294539174 0.0346732456226 0.0306280289301 0.0268177251654 0.0232821239636 0.0200476524365 0.0171283017432 0.0145712561597 0.0123569951359 0.010418808703 0.00873570878089 0.0072855495889 0.00605157554425 0.00504161558511 0.00418177683097 0.00345389677986 0.00284117645896 0.00232819338853 0.00191450638911 0.00157330925946 0.00128826321083 0.00105125534968 0.000855081286077 0.000695507383989 0.000568520963521 0.000463172392987 0.000376164200276 0.000304603758392 0.000245978181594 0.000200064367771 0.000162516362475 0.000131616361457 0.000106291715743 8.56150053217e-05 6.9129412055e-05 5.60660385436e-05 4.53340555704e-05 3.65542233421e-05 2.93987821039e-05 2.35874781049e-05 0.0722093374704 0.0747654455729 0.075858206541 0.0757003379389 0.074330572174 0.0718101259698 0.0679679343903 0.0632198387493 0.0581604035754 0.0528232621499 0.0473795659358 0.0419574860781 0.0365662609938 0.0318514774612 0.0275112570071 0.0235691219739 0.0200352447979 0.0168863527902 0.0142129199326 0.0119400228851 0.00997455910591 0.00828831267629 0.00685451455733 0.00565643334521 0.004680775338 0.0038566375617 0.00316456523993 0.00258665600701 0.002113137988 0.00173010481624 0.00141444491306 0.00115230789573 0.000935658069414 0.000758824057023 0.000616796754622 0.000502021542469 0.000407274380275 0.000329409008769 0.000265680577007 0.000215034966849 0.000174380313964 0.00014112876705 0.000113884778775 9.16523052446e-05 7.38344404395e-05 5.96763646518e-05 4.82344652475e-05 3.88734822226e-05 3.12457992221e-05 2.50531475866e-05 0.0902183980803 0.0936698761697 0.0952478849936 0.0949329548039 0.0930328380936 0.0896439191556 0.0845125658926 0.0780321471927 0.0711487555091 0.0642592735142 0.0573047724152 0.0504414687857 0.0436949547542 0.0375273835421 0.0322515992053 0.0274911468483 0.0232511022304 0.0195078806067 0.0162758386656 0.0135746884155 0.011300216563 0.00935643114813 0.00771194884042 0.00634195262796 0.00520150149372 0.00427575063038 0.00350004447087 0.00285388089002 0.00232736154035 0.00189430342262 0.00154321609544 0.00125519864952 0.00101749665569 0.000824013302483 0.000668282398974 0.000541115186384 0.000438524124771 0.000354276612478 0.000285391731022 0.000230850146109 0.000186383537575 0.000150587860706 0.000121422779128 9.76354289775e-05 7.8607053439e-05 6.34186316891e-05 5.10965140031e-05 4.1158671062e-05 3.30628879055e-05 2.64928164025e-05 0.112364230688 0.117028368213 0.119206315521 0.118749186372 0.116084031416 0.111531210159 0.104687619093 0.0961299417784 0.0868627081014 0.0776484095872 0.0688310744419 0.0602072403149 0.0518351668574 0.0442567022268 0.0374944712865 0.0318010741424 0.0267602345547 0.0223527443523 0.0185743518715 0.0153629306824 0.0127007731909 0.0104793045598 0.00860924128557 0.00706241092949 0.00577334082154 0.00470692073454 0.00384391704038 0.00312674858064 0.00254566530265 0.00206877213867 0.00167625785169 0.00135882951426 0.00109967703897 0.00088932264858 0.000720588641827 0.000582212575229 0.000469605642668 0.000378948017871 0.00030489785835 0.000246485537921 0.000198882872458 0.000160046919173 0.000128834407866 0.000103505115466 8.32821766583e-05 6.71677377957e-05 5.40239250567e-05 4.33902543804e-05 3.48336983923e-05 2.78930062485e-05 0.139451692181 0.145752663944 0.148770171764 0.148288490124 0.144399185133 0.13823326522 0.129132247066 0.117873202431 0.105842152773 0.0936317015036 0.082054071481 0.0713057938982 0.0610118768168 0.0517806563096 0.0436122262897 0.0364727732509 0.0305346211172 0.0253949191273 0.0210196468872 0.0173177514849 0.0142049480345 0.0116437085359 0.00953492324153 0.007803394355 0.00636354294829 0.0051717101111 0.00419200951581 0.00340171898976 0.00276509725594 0.00224373697879 0.00181513683539 0.00146420972431 0.00118120456907 0.000953924596652 0.000772243080165 0.000623317280755 0.000501729480655 0.000403151839868 0.000323974048274 0.000261753510126 0.000211070512771 0.000169732741057 0.00013614416501 0.000109200231478 8.78090155693e-05 7.07934424135e-05 5.69141781254e-05 4.56376842808e-05 3.65415953338e-05 2.92400001825e-05 0.172388287906 0.180878147995 0.185071418615 0.184667591579 0.179747052975 0.170734111774 0.158549842168 0.143813508432 0.128269799044 0.112659778702 0.0975744965806 0.0837495485698 0.071214146488 0.0600697521009 0.0502879065064 0.041805792346 0.0345332368522 0.0285965634237 0.023578159411 0.0193503786793 0.0158113014667 0.012866884476 0.0104752095345 0.00855325359587 0.00695836731524 0.00564136452829 0.00455889507093 0.00367484710277 0.00298234448188 0.0024164522645 0.00195180847202 0.00157192422692 0.00126256215078 0.00101693116103 0.00082250620073 0.000663218584094 0.000533272211757 0.000427672335873 0.00034238558044 0.000276457576843 0.0002227842335 0.000179022868145 0.00014348392774 0.000114725468639 9.21354297305e-05 7.42523229772e-05 5.96664495765e-05 4.78188041655e-05 3.82308029662e-05 3.05199184766e-05 0.213917299063 0.226273097447 0.231852921036 0.231180819372 0.224410608696 0.212117873207 0.194268864368 0.174469337957 0.154202573968 0.134203454956 0.115173512071 0.0975744965806 0.0819624240707 0.068693586228 0.0571512101359 0.0472278722037 0.038789445147 0.0317330614436 0.0260722388101 0.0213216458546 0.017361160596 0.0140799219145 0.0113906122535 0.00925616908933 0.0075150566413 0.00608004874235 0.00490312321614 0.00394221607169 0.00318091365335 0.00257436821041 0.00207674658529 0.00167033977589 0.00133979669662 0.00107506796997 0.000867715850893 0.000699140601366 0.000561683011439 0.000450054072563 0.000359732605066 0.000289522908643 0.000233209463994 0.000187300727592 0.000150029241511 0.000119882213125 9.6010609837e-05 7.73031262164e-05 6.20980480418e-05 4.97482532799e-05 3.97559354344e-05 3.16987678136e-05 0.265174053796 0.283219625195 0.291385161363 0.289742452295 0.279808543909 0.262489451061 0.237856365906 0.209611529095 0.183118571318 0.157751969692 0.13404634662 0.112502670366 0.0933995967192 0.0773930622527 0.0640106324197 0.0525968203281 0.0429663115868 0.0350075987657 0.0284595242569 0.0232005554683 0.0188316601332 0.0152254825264 0.0122844167343 0.00993330183964 0.00803158981475 0.00648607589824 0.00522087119971 0.00418996123089 0.00337558223046 0.0027184625265 0.00219057918756 0.00175985568254 0.00140992065803 0.00113032384842 0.000909555920482 0.000731521455005 0.000587263452287 0.000470180601938 0.000375513455928 0.000301933581213 0.000242535304853 0.000194699314571 0.000155873750128 0.000124482179354 9.96649685876e-05 8.00614699069e-05 6.4259390509e-05 5.1461951235e-05 4.11094263656e-05 3.27641744366e-05 0.326546692025 0.352522349747 0.364936199983 0.361828165181 0.347015860307 0.322505340572 0.288536382451 0.250969685095 0.21470329794 0.182842117654 0.153802727441 0.127869952517 0.1054110893 0.086450708418 0.0707797868388 0.0578429787196 0.0470080569086 0.038160019492 0.0309279683921 0.024987156757 0.0202205582177 0.0163004107332 0.013118823283 0.010592719303 0.00852866784833 0.00686247924099 0.00551390500952 0.00441731232657 0.00355553834142 0.00285984288219 0.00229493349528 0.00184153867243 0.00147363203336 0.00118037996228 0.000949491324739 0.00076166959207 0.00061044693454 0.000488347230079 0.000389704124126 0.000313284816718 0.000251441964943 0.000201374607634 0.000161125958373 0.000128600930095 0.000102929851298 8.26800270331e-05 6.6232093065e-05 5.29974198098e-05 4.23177540397e-05 3.37121635522e-05 0.398589236217 0.436351980042 0.455210297402 0.450783668393 0.427138275545 0.392488902509 0.345898441215 0.296581169687 0.250464952984 0.208903880236 0.173727757859 0.143071928334 0.117181831446 0.0955239657248 0.0775204125417 0.0627980678004 0.0507796238472 0.0410832038545 0.0332064804683 0.0267549840965 0.0214929578469 0.0172765604508 0.0138714145313 0.011185932806 0.00899370584832 0.00721131406657 0.00577611178891 0.00461938256116 0.00371501709363 0.00298593670558 0.00239334510413 0.00191399833227 0.00152980409744 0.00122432095044 0.000984484372357 0.000789382313028 0.000631307717836 0.000504284191023 0.000402087035248 0.000323169486328 0.00025931557594 0.000207518898468 0.000165719322157 0.000132184206492 0.000105760493906 8.4946564543e-05 6.80370677346e-05 5.43547744736e-05 4.3367072218e-05 3.45314989175e-05 0.480602804916 0.533353131276 0.564561100774 0.562604204168 0.528432134764 0.473158229277 0.410408745974 0.344924202941 0.28723644958 0.236549996505 0.193092126739 0.157373104538 0.128129464877 0.103860165967 0.0838435719864 0.0674344281244 0.0541397907695 0.0436646550949 0.0352061163414 0.0282967642389 0.0226775725865 0.0181260570546 0.0145201720696 0.0116950858618 0.00939113133187 0.00752020567283 0.00600678636356 0.00479151072711 0.00385021007622 0.00309244910595 0.00247685488801 0.00197874026036 0.00157737548155 0.00126129188692 0.00101383020777 0.000812551870184 0.000649520382725 0.000517957478291 0.000412461006985 0.000331420207613 0.000265868342925 0.000212698225526 0.000169739301972 0.000135181984806 0.000108115974423 8.68270648698e-05 6.95306266157e-05 5.55358373329e-05 4.4253787858e-05 3.52119506804e-05 0.571198193841 0.655012265891 0.708005350131 0.705050738245 0.647529092446 0.562892067914 0.4724202645 0.391514664235 0.321205407701 0.26118308166 0.210941135577 0.169557374144 0.137230483031 0.110703757032 0.0889749252493 0.0712766197039 0.0569325183624 0.0457125395255 0.0367829544638 0.0295055734183 0.0236013752719 0.0188304801853 0.0150244712617 0.0120892506987 0.00969760099364 0.00775752960952 0.00618998420285 0.00492789107055 0.00395382860438 0.00317382429632 0.00254046618711 0.00202827899735 0.00161557868248 0.00128945983608 0.00103612319366 0.000830105757811 0.000663284783882 0.00052871273542 0.000420520056195 0.000337665233877 0.00027081541137 0.000216599264806 0.000172803691475 0.000137550269774 0.000109894663714 8.82434361167e-05 7.06529646662e-05 5.64214983589e-05 4.49502063101e-05 3.5734184597e-05 0.657502315329 0.784730706594 0.88035338919 0.874738604597 0.771812205925 0.645196523105 0.52542084864 0.424620433565 0.344647734159 0.27777766306 0.222742978419 0.178079422699 0.143062050183 0.115027236443 0.0922053950895 0.0736868521511 0.0587302658429 0.0470396913416 0.0377537401241 0.0302496768544 0.0241697136555 0.0192635115171 0.0153593735215 0.0123290911955 0.00988422890709 0.00790210550783 0.00630159955753 0.00501382861679 0.00401878911494 0.00322306614062 0.00257898865119 0.00205829468109 0.00163888965433 0.00130768291755 0.0010495565